3
* (null), Energy   -1000.0000000
O     0.000000    0.000000    0.090697   -0.000000    0.000000    0.140442
H    -0.756716    0.000000   -0.511349    0.864824    0.000000   -1.114548
H     0.756716    0.000000   -0.511349   -0.864824    0.000000   -1.114548
3
* Frequency(6) 1640.8512
O     0.000000    0.000000    0.106658   -0.000000    0.000000    0.140442
H    -0.658433    0.000000   -0.638011    0.864824    0.000000   -1.114548
H     0.658433    0.000000   -0.638011   -0.864824    0.000000   -1.114548
3
* Frequency(6) 1640.8512
O     0.000000    0.000000    0.120889   -0.000000    0.000000    0.140442
H    -0.570801    0.000000   -0.750948    0.864824    0.000000   -1.114548
H     0.570801    0.000000   -0.750948   -0.864824    0.000000   -1.114548
3
* Frequency(6) 1640.8512
O     0.000000    0.000000    0.131848   -0.000000    0.000000    0.140442
H    -0.503315    0.000000   -0.837920    0.864824    0.000000   -1.114548
H     0.503315    0.000000   -0.837920   -0.864824    0.000000   -1.114548
3
* Frequency(6) 1640.8512
O     0.000000    0.000000    0.138348   -0.000000    0.000000    0.140442
H    -0.463290    0.000000   -0.889504    0.864824    0.000000   -1.114548
H     0.463290    0.000000   -0.889504   -0.864824    0.000000   -1.114548
3
* Frequency(6) 1640.8512
O     0.000000    0.000000    0.139684   -0.000000    0.000000    0.140442
H    -0.455061    0.000000   -0.900108    0.864824    0.000000   -1.114548
H     0.455061    0.000000   -0.900108   -0.864824    0.000000   -1.114548
3
* Frequency(6) 1640.8512
O     0.000000    0.000000    0.135712   -0.000000    0.000000    0.140442
H    -0.479522    0.000000   -0.868584    0.864824    0.000000   -1.114548
H     0.479522    0.000000   -0.868584   -0.864824    0.000000   -1.114548
3
* Frequency(6) 1640.8512
O     0.000000    0.000000    0.126862   -0.000000    0.000000    0.140442
H    -0.534021    0.000000   -0.798348    0.864824    0.000000   -1.114548
H     0.534021    0.000000   -0.798349   -0.864824    0.000000   -1.114548
3
* Frequency(6) 1640.8512
O     0.000000    0.000000    0.114092   -0.000000    0.000000    0.140442
H    -0.612652    0.000000   -0.697012    0.864824    0.000000   -1.114548
H     0.612652    0.000000   -0.697012   -0.864824    0.000000   -1.114548
3
* Frequency(6) 1640.8512
O     0.000000    0.000000    0.098788   -0.000000    0.000000    0.140442
H    -0.706895    0.000000   -0.575556    0.864824    0.000000   -1.114548
H     0.706895    0.000000   -0.575556   -0.864824    0.000000   -1.114548
3
* Frequency(6) 1640.8512
O     0.000000    0.000000    0.082607   -0.000000    0.000000    0.140442
H    -0.806537    0.000000   -0.447142    0.864824    0.000000   -1.114548
H     0.806537    0.000000   -0.447142   -0.864824    0.000000   -1.114548
3
* Frequency(6) 1640.8512
O     0.000000    0.000000    0.067302   -0.000000    0.000000    0.140442
H    -0.900780    0.000000   -0.325686    0.864824    0.000000   -1.114548
H     0.900780    0.000000   -0.325685   -0.864824    0.000000   -1.114548
3
* Frequency(6) 1640.8512
O     0.000000    0.000000    0.054533   -0.000000    0.000000    0.140442
H    -0.979411    0.000000   -0.224349    0.864824    0.000000   -1.114548
H     0.979411    0.000000   -0.224349   -0.864824    0.000000   -1.114548
3
* Frequency(6) 1640.8512
O     0.000000    0.000000    0.045683   -0.000000    0.000000    0.140442
H    -1.033910    0.000000   -0.154113    0.864824    0.000000   -1.114548
H     1.033910    0.000000   -0.154113   -0.864824    0.000000   -1.114548
3
* Frequency(6) 1640.8512
O     0.000000    0.000000    0.041711   -0.000000    0.000000    0.140442
H    -1.058371    0.000000   -0.122589    0.864824    0.000000   -1.114548
H     1.058371    0.000000   -0.122589   -0.864824    0.000000   -1.114548
3
* Frequency(6) 1640.8512
O     0.000000    0.000000    0.043047   -0.000000    0.000000    0.140442
H    -1.050142    0.000000   -0.133194    0.864824    0.000000   -1.114548
H     1.050142    0.000000   -0.133193   -0.864824    0.000000   -1.114548
3
* Frequency(6) 1640.8512
O     0.000000    0.000000    0.049547   -0.000000    0.000000    0.140442
H    -1.010117    0.000000   -0.184777    0.864824    0.000000   -1.114548
H     1.010117    0.000000   -0.184777   -0.864824    0.000000   -1.114548
3
* Frequency(6) 1640.8512
O     0.000000    0.000000    0.060506   -0.000000    0.000000    0.140442
H    -0.942631    0.000000   -0.271749    0.864824    0.000000   -1.114548
H     0.942631    0.000000   -0.271749   -0.864824    0.000000   -1.114548
3
* Frequency(6) 1640.8512
O     0.000000    0.000000    0.074737   -0.000000    0.000000    0.140442
H    -0.854999    0.000000   -0.384686    0.864824    0.000000   -1.114548
H     0.854999    0.000000   -0.384686   -0.864824    0.000000   -1.114548
3
* Frequency(6) 1640.8512
O     0.000000    0.000000    0.090697   -0.000000    0.000000    0.140442
H    -0.756716    0.000000   -0.511349    0.864824    0.000000   -1.114548
H     0.756716    0.000000   -0.511349   -0.864824    0.000000   -1.114548
